VARIABLES = "y", "u_fluc", "v_fluc", "w_fluc"
ZONE T="Line at z=225", I=330, F=POINT
VARLOCATION=([2-4]=CELLCENTERED)
9.068e-07 -0 -0 -0
1.8301e-06 -10.2451 -3.88109 -7.63385
2.77021e-06 -20.8995 -6.32437 -14.584
3.72742e-06 -30.7759 -7.30604 -19.7092
4.70205e-06 -39.3804 -6.26442 -24.7085
5.6944e-06 -46.8119 -1.03357 -28.453
6.70481e-06 -45.5028 3.73529 -37.3198
7.7336e-06 -40.2447 8.59843 -45.4787
8.78109e-06 -41.9214 13.7764 -55.4068
9.84764e-06 -47.9408 11.7752 -63.0912
1.09336e-05 -57.5659 16.6002 -69.8327
1.20393e-05 -81.3419 15.7418 -74.6377
1.3165e-05 -106.752 15.3991 -81.3613
1.43113e-05 -150.542 10.6622 -81.8764
1.54784e-05 -184.587 6.50421 -74.194
1.66666e-05 -196.324 6.36428 -71.1643
1.78765e-05 -202.12 8.93712 -71.1266
1.91084e-05 -201.022 14.7254 -69.1034
2.03626e-05 -189.294 14.107 -61.8514
2.16396e-05 -213.798 21.6318 -51.3865
2.29398e-05 -222.368 20.323 -38.9835
2.42637e-05 -245.067 20.7769 -36.5556
2.56115e-05 -269.021 21.6918 -35.4458
2.69838e-05 -298.472 13.4706 -37.0756
2.83811e-05 -381.001 -2.29038 -28.8339
2.98037e-05 -429.833 2.51218 -29.9413
3.12521e-05 -440.114 13.4864 -7.71567
3.27268e-05 -458.355 17.4348 5.72695
3.42282e-05 -434.329 21.4104 -4.38975
3.57569e-05 -413.694 30.2968 -18.3145
3.73133e-05 -370.21 35.3834 -14.4449
3.88979e-05 -330.347 25.6223 -7.42817
4.05112e-05 -319.434 -0.289203 -7.32409
4.21538e-05 -262.59 2.53091 3.13906
4.38262e-05 -203.433 -5.83034 8.23618
4.55288e-05 -144.805 8.87271 13.2018
4.72623e-05 -119.835 14.5024 23.8582
4.90272e-05 -80.2625 20.2572 14.4776
5.08241e-05 -15.6387 24.8943 -0.683221
5.26535e-05 -8.02079 21.3964 -16.5468
5.4516e-05 -12.6467 43.9604 -33.7159
5.64123e-05 -14.8006 69.3771 -58.0322
5.83428e-05 -55.6145 61.7037 -73.4404
6.03083e-05 -89.0679 63.5743 -72.6644
6.23094e-05 -74.5766 70.6132 -68.714
6.43466e-05 -47.8277 49.0493 -65.8128
6.64207e-05 24.9087 36.1641 -55.6559
6.85323e-05 36.9225 47.6888 -72.1992
7.0682e-05 47.2682 58.5916 -88.3754
7.28706e-05 36.3996 46.2551 -102.335
7.50987e-05 21.9508 51.4168 -72.8561
7.73671e-05 39.4439 23.7452 -101.9
7.96764e-05 -57.9106 -18.151 -139.665
8.20275e-05 -257.567 -56.2239 -159.073
8.44209e-05 -323.686 -94.7864 -121.746
8.68576e-05 -332.014 -95.0502 -77.0989
8.93382e-05 -352.838 -72.9862 -45.8268
9.18636e-05 -278.292 -43.1222 -36.3339
9.44345e-05 -248.422 -41.3583 -17.0911
9.70518e-05 -178.595 -2.09927 6.38134
9.97162e-05 -127.13 -20.2003 -5.57855
0.000102429 -93.6743 -17.1892 -5.39558
0.00010519 -53.6475 -29.3909 41.8606
0.000108001 -75.2343 -16.9912 53.3907
0.000110863 -37.2301 7.40377 45.141
0.000113776 36.0557 -36.6263 26.7449
0.000116741 43.8394 -34.8101 55.1256
0.00011976 112.895 -11.6538 91.2085
0.000122833 72.4193 18.6326 85.9007
0.000125962 71.1706 30.3473 105.71
0.000129146 113.311 33.3412 120.898
0.000132388 33.7495 18.1461 170.855
0.000135688 19.6825 29.0267 159.993
0.000139047 -95.5787 31.7996 133.833
0.000142467 -192.146 -14.3658 163.994
0.000145948 -243.511 -17.0627 108.25
0.000149491 -315.985 -59.5641 124.097
0.000153098 -248.342 -53.36 159.892
0.000156769 -110.435 14.6913 171.938
0.000160507 -44.2741 68.2881 172.186
0.000164311 -109.752 -9.30183 120.583
0.000168183 -185.194 -58.7627 93.802
0.000172125 -141.203 27.5993 58.8831
0.000176137 -165.29 21.0719 21.4068
0.00018022 -128.75 -96.1098 -3.1067
0.000184377 -192.629 -48.7584 -14.1451
0.000188608 -93.1674 -66.6174 -47.5424
0.000192915 15.8566 -26.482 -82.322
0.000197298 170.39 16.3104 -127.32
0.00020176 236.148 29.34 -111.407
0.000206301 215.629 -26.3868 -79.8576
0.000210923 164.587 -55.7635 -53.7198
0.000215627 103.647 -80.2797 -30.9233
0.000220415 34.8281 -80.4724 -5.38717
0.000225289 -54.8888 -63.5635 16.4202
0.000230249 -93.6184 -68.8641 46.4961
0.000235297 -77.388 -48.5229 68.4733
0.000240435 -78.8488 -39.5513 89.04
0.000245664 -71.8443 -36.9781 103.184
0.000250986 -69.6444 -26.2764 113.783
0.000256403 -62.6237 -18.0839 146.907
0.000261915 -54.7112 -18.7325 161.378
0.000267525 -52.8686 -19.2425 164.62
0.000273235 -51.3252 0.651903 166.485
0.000279045 -48.9058 0.531016 167.143
0.000284958 -47.1828 4.11421 165.132
0.000290976 -42.5751 4.55174 160.989
0.0002971 -39.7975 7.05128 154.884
0.000303333 -35.634 8.97667 144.215
0.000309675 -32.7683 7.85271 133.339
0.000316129 -33.0983 3.15755 127.517
0.000322697 -25.1556 -1.97864 121.182
0.00032938 -18.2137 -9.16545 116.115
0.000336181 -5.85593 -14.9496 111.06
0.000343102 5.3718 -17.2658 102.313
0.000350144 19.8896 -18.0408 95.5049
0.00035731 28.1972 -19.6117 87.1964
0.000364602 30.0624 -22.7592 79.9508
0.000372021 37.4115 -24.9278 74.6584
0.00037957 44.9588 -28.3274 69.113
0.000387252 44.2814 -36.269 64.6818
0.000395068 47.9371 -40.1147 55.9669
0.00040302 52.7582 -39.9319 49.3777
0.000411112 60.4148 -34.5441 42.1401
0.000419344 65.4693 -27.0367 31.4725
0.00042772 71.5639 -24.788 24.6936
0.000436242 80.2761 -17.4679 16.9957
0.000444912 82.4366 -11.273 16.8652
0.000453733 85.8989 -4.57795 16.338
0.000462707 83.519 2.89976 12.0303
0.000471837 80.7038 7.62796 8.49195
0.000481125 73.1022 8.76336 3.69378
0.000490574 67.477 13.9469 -3.14213
0.000500186 65.66 12.6228 -7.36241
0.000509965 73.8902 21.5881 -10.1715
0.000519912 76.7277 24.7794 -13.952
0.000530031 83.5454 34.3981 -19.2382
0.000540324 95.7209 43.3405 -25.1163
0.000550795 104.079 53.3123 -27.9805
0.000561445 108.196 62.5992 -23.8186
0.000572278 113.591 71.4762 -21.0826
0.000583297 113.902 81.0041 -19.2781
0.000594505 109.419 86.5258 -20.3447
0.000605905 102.262 95.3679 -15.7551
0.000617499 91.0607 101.323 -11.9797
0.000629291 75.5252 106.786 -3.11443
0.000641284 64.655 101.521 5.47683
0.000653482 48.8597 93.1904 12.0529
0.000665886 33.2214 78.8037 18.955
0.000678502 30.3067 64.2211 24.6119
0.000691331 22.4996 45.3731 32.7014
0.000704378 23.6233 38.4716 32.3813
0.000717645 18.352 31.4504 35.3814
0.000731136 23.9064 32.2926 35.9842
0.000744854 33.7936 30.6472 42.1191
0.000758804 35.1918 30.6834 42.3157
0.000772988 34.7043 22.2681 34.6919
0.00078741 39.7464 17.4681 25.0136
0.000802073 45.5351 17.6607 12.9004
0.000816982 47.2831 15.2579 7.7201
0.00083214 47.2855 13.1992 5.65293
0.000847551 45.9957 10.831 6.6017
0.000863218 44.2114 9.65591 9.62573
0.000879145 30.4261 9.48009 14.4145
0.000895337 22.2591 -0.319007 15.0019
0.000911797 17.7295 -10.4392 14.1909
0.000928529 14.2398 -18.7091 15.9018
0.000945537 12.1404 -21.1551 16.2937
0.000962824 7.04997 -19.184 8.65455
0.000980397 8.29871 -12.7157 4.96763
0.000998257 7.82071 -5.13524 0.343077
0.00101641 3.72502 0.636024 -1.26588
0.00103486 -6.64103 7.42952 -7.98553
0.00105361 -8.52281 8.30951 -10.5694
0.00107266 -8.99217 14.4259 -14.4539
0.00109203 -7.80287 13.8244 -17.4762
0.00111171 -10.0667 13.8247 -19.8262
0.0011317 -10.622 9.6649 -15.8078
0.00115202 -12.1649 6.36735 -14.3405
0.00117266 -10.0417 8.09427 -10.0215
0.00119364 -8.27413 9.24705 -4.421
0.00121495 -4.38306 1.89194 0.0585231
0.00123661 7.113 7.74494 5.14745
0.0012586 11.868 9.22797 7.72316
0.00128095 6.51228 16.0739 9.13691
0.00130365 4.55666 29.382 9.84857
0.00132671 10.7798 37.3861 7.9326
0.00135014 12.6406 37.1248 6.95715
0.00137393 11.9573 28.7497 11.6668
0.0013981 11.5445 23.9463 18.3146
0.00142264 7.62664 24.1821 24.2435
0.00144756 6.80728 23.0992 28.8868
0.00147288 2.39378 23.0544 31.7541
0.00149858 3.42362 26.1091 35.0779
0.00152469 5.07409 24.6205 34.5795
0.00155119 0.942433 24.4806 32.5553
0.0015781 -3.57029 20.9822 30.0398
0.00160543 -3.96985 22.6726 29.0714
0.00163317 -3.07738 18.5206 28.0863
0.00166133 -1.13885 15.8568 25.3957
0.00168992 2.46292 15.2896 22.4087
0.00171894 2.77717 10.2704 21.0047
0.0017484 4.21298 5.65345 20.309
0.0017783 6.68185 2.86951 17.7686
0.00180865 8.69889 -1.84395 12.7798
0.00183945 9.71982 -4.22564 8.76844
0.0018707 11.1045 -1.60754 5.42205
0.00190242 10.6863 -1.78534 2.94462
0.0019346 9.00081 -5.69867 3.12684
0.00196725 5.66623 -5.10909 2.78275
0.00200039 4.92131 -7.79045 2.7161
0.002034 5.0923 -4.9312 0.134074
0.0020681 4.55289 -6.82086 -0.152716
0.00210269 5.29586 -7.22615 -0.405609
0.00213778 3.99578 -6.04437 0.985002
0.00217336 2.37473 -5.39483 1.28665
0.00220946 2.19999 -4.40686 -0.0238578
0.00224606 1.89374 -2.63711 -1.18911
0.00228318 2.0533 -1.09591 -2.8982
0.00232082 -0.342732 -6.98002 -2.66802
0.00235899 -3.29616 -7.94718 -1.04714
0.00239768 -4.08132 -9.16393 -0.000491782
0.00243691 -3.12028 -3.97758 0.518767
0.00247668 -3.40026 -3.27637 0.82282
0.00251699 -3.17148 -2.46926 0.888763
0.00255785 -2.00266 -0.333026 0.86437
0.00259926 -0.526022 -0.477422 -0.462458
0.00264123 0.230244 2.48925 -0.878117
0.00268376 0.0337621 2.47404 -0.0121493
0.00272686 2.07787 0.91251 -0.27638
0.00277052 3.24643 4.46435 -0.0792043
0.00281475 3.39971 5.52378 0.548399
0.00285957 0.420699 2.84458 0.9092
0.00290496 -1.87263 1.36459 1.74383
0.00295094 -2.72315 -0.887628 1.80226
0.00299751 -2.69736 -3.47627 2.18793
0.00304466 -2.43655 -2.38855 2.40084
0.00309242 -2.55072 0.37499 2.04263
0.00314077 -3.65795 -1.39168 1.502
0.00318973 -2.67647 -0.000469416 0.19092
0.00323929 -2.0326 -1.69256 0.540374
0.00328945 -3.56926 -1.16123 1.69817
0.00334023 -3.75808 -0.564 -1.04904
0.00339162 -3.66507 -1.08801 -2.41452
0.00344363 -4.23722 -1.68958 -2.42192
0.00349626 -4.27372 -4.02428 -0.20231
0.00354951 -3.67893 -1.55258 -0.291807
0.00360338 -4.57494 -2.54517 0.504047
0.00365788 -4.6658 -1.9807 1.90703
0.003713 -1.70014 1.40818 2.08726
0.00376875 -1.63258 4.61156 0.811723
0.00382513 -1.26934 4.86911 1.1279
0.00388215 -0.629206 3.80965 0.897125
0.00393979 0.0208657 2.89224 2.26961
0.00399807 0.34996 2.36002 1.62572
0.00405699 0.603646 0.00341553 1.18699
0.00411654 0.403107 1.25054 1.24814
0.00417672 -1.25303 -0.353803 0.410244
0.00423754 -1.82128 0.945178 0.662577
0.004299 -0.154419 2.10235 2.19716
0.00436109 1.88572 1.38655 1.38571
0.00442381 3.37025 2.80724 0.473943
0.00448717 2.80012 3.80786 1.2303
0.00455116 2.38991 1.35797 1.04288
0.00461579 2.82078 1.0487 1.05919
0.00468104 1.79461 -0.158371 -0.371781
0.00474693 -1.16786 -2.10635 0.24756
0.00481344 -2.78818 -5.37148 -0.177434
0.00488058 -1.43753 -1.15923 -1.18467
0.00494834 -0.538035 0.457441 -1.60587
0.00501672 -0.912743 1.57058 -1.10547
0.00508571 -1.66312 0.692863 -0.882049
0.00515532 -3.90916 -2.95815 0.0709421
0.00522555 -3.58625 -2.99575 -0.545534
0.00529638 -2.76747 -0.758817 -0.811527
0.00536781 -2.46825 -1.19391 -0.926585
0.00543984 -0.288541 1.81577 -1.50848
0.00551247 0.537159 1.94024 -0.862885
0.00558569 0.944375 -0.511865 0.264094
0.00565949 0.908101 -0.953432 0.522665
0.00573387 0.272834 2.0517 -0.0350793
0.00580883 -1.11461 2.46431 0.315151
0.00588436 -1.29272 0.731262 0.262624
0.00596044 -1.70145 -3.01489 0.0377692
0.00603709 -1.30636 -2.51457 1.18476
0.00611429 -2.64972 -4.22538 0.705457
0.00619202 -1.08741 -0.898746 1.35233
0.0062703 -0.835193 -1.56856 1.87815
0.0063491 0.473709 0.228297 1.82679
0.00642842 0.254316 -0.303892 0.904214
0.00650826 1.33962 1.23596 0.351494
0.0065886 1.9684 1.36266 -0.457166
0.00666943 3.22943 1.95405 -0.974679
0.00675076 2.41626 2.27623 -0.232705
0.00683256 1.86027 0.823218 -0.170774
0.00691483 1.03853 -0.124899 -1.01335
0.00699756 1.05132 0.284963 -0.845962
0.00708073 1.0948 1.4398 -0.104771
0.00716435 1.96344 3.71957 -0.552879
0.0072484 2.50053 2.29979 0.44818
0.00733286 2.41925 2.22387 -0.813362
0.00741773 2.20294 2.57933 -1.51179
0.007503 3.12317 2.9709 -0.745996
0.00758865 3.40069 4.60497 -0.291613
0.00767468 2.40331 3.82483 -1.85587
0.00776106 0.658648 1.1379 -1.71732
0.0078478 -0.0753457 -2.08926 -0.974889
0.00793488 0.679278 -1.12033 -0.909136
0.00802227 -0.248664 0.621798 -0.564925
0.00810999 -1.84998 1.22814 0.617333
0.008198 -2.51195 -1.12786 0.788324
0.00828629 -1.98262 -2.00771 1.44783
0.00837486 -0.891466 -2.93939 1.6701
0.0084637 0.531547 -0.243413 1.25715
0.00855277 0.171454 -0.986956 0.65428
0.00864208 0.765846 -0.858354 -0.057686
0.00873161 0.957659 2.33565 -0.127259
0.00882135 0.130194 0.985361 0.985991
0.00891127 -0.132408 1.37706 1.13382
0.00900137 1.39346 3.42744 0.569262
0.00909164 0.556762 1.90088 -0.55194
0.00918205 -0.644442 0.468324 0.02002
0.0092726 -0.509596 0.302974 -0.329132
0.00936326 -0.19564 -0.844044 -0.816939
0.00945403 0.889084 0.893447 0.458762
0.00954489 1.64926 1.7944 1.50781
0.00963582 -0.0751231 -2.43242 1.35987
0.00972681 -0.180459 -1.36858 1.56136
0.00981785 -0.0474447 -1.24947 0.789228
0.00990892 0.117948 -0.25171 0.670362
