VARIABLES = "y", "u_fluc", "v_fluc", "w_fluc"
ZONE T="Line at z=280", I=400, F=POINT
VARLOCATION=([2-4]=CELLCENTERED)
7.47325e-07 -0.122072 -0.0413437 0.0367516
1.50586e-06 -0.111472 -0.0373251 0.0241204
2.27577e-06 -0.0986626 -0.0427487 0.0147318
3.05723e-06 -0.0877521 -0.0418564 0.0118485
3.8504e-06 -0.0702717 -0.0503785 0.00728095
4.65547e-06 -0.0499312 -0.0513839 0.00411123
5.47261e-06 -0.0428098 -0.0552945 0.000384826
6.30199e-06 -0.0380453 -0.0466505 -0.0097732
7.14382e-06 -0.031289 -0.0436286 -0.0225835
7.99826e-06 -0.0282539 -0.0486351 -0.0274517
8.8655e-06 -0.0303417 -0.0538363 -0.0311545
9.74574e-06 -0.0296644 -0.0591473 -0.0374997
1.06392e-05 -0.0244996 -0.0547993 -0.0353732
1.1546e-05 -0.0190772 -0.0529515 -0.0372659
1.24664e-05 -0.0223082 -0.0377074 -0.0295555
1.34006e-05 -0.0142181 -0.0318078 -0.0250896
1.43488e-05 -0.00584836 -0.0471719 -0.0197084
1.53112e-05 -0.00197263 -0.039358 -0.00963101
1.6288e-05 0.00262858 -0.0313726 -0.00294299
1.72794e-05 0.00179837 -0.0233103 -0.00505875
1.82857e-05 0.00343711 0.0092984 -0.00754197
1.9307e-05 0.0113368 0.0233302 -0.00834735
2.03437e-05 0.0121366 0.0566675 -0.00504397
2.13958e-05 0.00872322 0.0830611 -0.00920346
2.24637e-05 0.0118568 0.105523 -0.00845497
2.35476e-05 0.0160094 0.124937 -0.00249382
2.46477e-05 0.0234103 0.125086 0.00498092
2.57643e-05 0.028156 0.136268 0.00516595
2.68976e-05 0.0217858 0.15495 0.00178947
2.80478e-05 0.015506 0.181441 -0.00408535
2.92152e-05 0.0172095 0.196856 -0.0175376
3.04001e-05 0.014808 0.223458 -0.0213138
3.16027e-05 0.0296097 0.219691 -0.0321001
3.28233e-05 0.0454608 0.201391 -0.0326828
3.40621e-05 0.0525529 0.180432 -0.028584
3.53195e-05 0.0609721 0.160702 -0.0248658
3.65956e-05 0.0646458 0.149982 -0.0211535
3.78908e-05 0.0702608 0.128522 -0.0161208
3.92054e-05 0.0700927 0.122583 -0.0135355
4.05396e-05 0.0678119 0.137215 -0.00873197
4.18938e-05 0.0654724 0.125192 -0.00222451
4.32681e-05 0.0628846 0.116672 0.00830195
4.4663e-05 0.0796039 0.0887806 0.0241517
4.60788e-05 0.0879713 0.0879824 0.0436576
4.75156e-05 0.10433 0.081162 0.0546652
4.89739e-05 0.106119 0.0851811 0.0671652
5.0454e-05 0.108028 0.0963863 0.0725876
5.19562e-05 0.11204 0.110733 0.0703741
5.34808e-05 0.116815 0.109876 0.0785051
5.50281e-05 0.108164 0.0901275 0.0862909
5.65985e-05 0.107973 0.0919588 0.0965043
5.81924e-05 0.100887 0.0837687 0.0932578
5.981e-05 0.10085 0.0766382 0.0983082
6.14517e-05 0.0840637 0.0426199 0.104026
6.31179e-05 0.0712421 0.0314729 0.11205
6.48089e-05 0.0567983 0.0231223 0.113323
6.65251e-05 0.0458798 -0.00729491 0.119886
6.82669e-05 0.0510032 -0.018429 0.123034
7.00346e-05 0.0580074 -0.00115218 0.100338
7.18287e-05 0.0541947 0.00701896 0.0867604
7.36495e-05 0.0651071 0.012281 0.0866046
7.54974e-05 0.0609811 0.0181127 0.0661098
7.73728e-05 0.0683141 0.00520038 0.0599773
7.92761e-05 0.0670187 0.0313488 0.054658
8.12078e-05 0.0885737 0.027508 0.0555439
8.31681e-05 0.0895478 0.0281605 0.0704721
8.51577e-05 0.0816243 0.0316542 0.0802315
8.71768e-05 0.0636598 0.0693332 0.0785362
8.92259e-05 0.063333 0.072557 0.0822661
9.13055e-05 0.0647627 0.0725082 0.0824153
9.3416e-05 0.056981 0.069906 0.0862546
9.55579e-05 0.0655253 0.0754803 0.0846096
9.77316e-05 0.0650012 0.039313 0.0818441
9.99376e-05 0.0665381 0.0421008 0.110194
0.000102176 0.0453231 0.0336744 0.133878
0.000104448 0.0243879 0.00406781 0.140111
0.000106754 0.00156733 0.0148529 0.144633
0.000109094 0.00563221 0.00698565 0.144152
0.000111468 -0.018198 -0.0143797 0.142759
0.000113878 -0.0285143 -0.0351172 0.120137
0.000116324 -0.0272278 -0.0367851 0.112293
0.000118806 -0.0317405 -0.0551697 0.108604
0.000121324 -0.0239117 -0.0457175 0.0997622
0.00012388 -0.0376788 -0.031159 0.0983097
0.000126474 -0.0477041 -0.0251846 0.0852957
0.000129106 -0.0607848 -0.0122866 0.0395137
0.000131777 -0.0521934 -0.0153639 0.0385853
0.000134488 -0.0524593 -0.0121095 0.0232106
0.000137239 -0.0408902 0.0358105 0.0279384
0.00014003 -0.0449461 0.0196745 0.034701
0.000142863 -0.0356897 0.0268433 0.0343041
0.000145738 -0.0307069 0.0385409 0.0426776
0.000148655 -0.022428 0.058207 0.0329128
0.000151615 -0.0428401 0.0462294 0.0675481
0.000154619 -0.0363342 0.0657758 0.081602
0.000157667 -0.0157906 0.0982548 0.0807326
0.000160761 -0.00805452 0.0947118 0.0875837
0.0001639 -0.0165608 0.0475458 0.0954541
0.000167085 -0.0139985 0.0419832 0.100204
0.000170317 -0.0129698 0.0163738 0.100881
0.000173597 -0.0113871 0.00953645 0.0996447
0.000176925 -0.0223379 -0.00388122 0.0944405
0.000180303 -0.0285246 -0.0316391 0.0912834
0.00018373 -0.0174724 -0.0361222 0.0893866
0.000187207 -0.0172724 -0.0547453 0.0755718
0.000190736 -0.0103561 -0.0421193 0.0660603
0.000194316 0.00194973 -0.0701811 0.0552364
0.00019795 0.00536252 -0.065052 0.0536146
0.000201636 -0.00488046 -0.0484607 0.0343401
0.000205377 -0.00243322 -0.0602125 0.0384883
0.000209173 0.00973196 -0.0570088 0.0324384
0.000213024 0.0141485 -0.0553245 0.0327722
0.000216932 0.018438 -0.0386412 0.0280911
0.000220898 0.0236494 -0.0299848 0.025315
0.000224921 0.0317334 -0.014192 0.0241185
0.000229004 0.0377995 -0.0218354 0.0247665
0.000233146 0.0375892 -0.0227777 0.0212526
0.000237349 0.0399875 -0.00918209 0.021528
0.000241614 0.0422299 0.00981538 0.0220855
0.00024594 0.0448356 0.0194212 0.0248562
0.000250331 0.0489186 0.0342962 0.0274656
0.000254785 0.0522662 0.0376516 0.0295005
0.000259305 0.0529839 0.0395513 0.0318639
0.00026389 0.0521007 0.0348707 0.0323914
0.000268543 0.0491411 0.0321643 0.0346773
0.000273263 0.0465185 0.0301762 0.0360397
0.000278053 0.0433426 0.0242045 0.0352704
0.000282912 0.0392482 0.01627 0.0348901
0.000287842 0.0378841 0.0112849 0.0349117
0.000292843 0.0371756 0.0096324 0.0321106
0.000297918 0.0367813 0.00745278 0.0308889
0.000303066 0.0379841 0.00533614 0.0289401
0.000308289 0.0365783 0.00556541 0.0259725
0.000313589 0.0353595 0.00595742 0.0229629
0.000318965 0.0330087 0.00681891 0.0194859
0.000324419 0.0284024 0.00642425 0.0158559
0.000329952 0.0238088 0.00714737 0.0131542
0.000335566 0.0211728 0.00799486 0.00947338
0.000341261 0.0195273 0.00614261 0.00719823
0.000347038 0.0170729 0.00481671 0.00491449
0.000352899 0.0152401 0.00278989 0.00391612
0.000358845 0.0128168 0.0016286 0.00359086
0.000364877 0.0111575 0.000849424 0.00296446
0.000370996 0.0088603 -0.000361577 0.00109001
0.000377203 0.00572987 -0.000544735 -0.00090658
0.0003835 0.00403941 -0.00173409 -0.00284247
0.000389888 0.00271822 -0.00175467 -0.00410887
0.000396367 0.0016819 -0.00224089 -0.00542665
0.00040294 0.00102668 -0.0022774 -0.00623284
0.000409608 0.00102328 -0.00174668 -0.00648544
0.000416372 0.000653558 -0.00187064 -0.00680946
0.000423232 -0.000333992 -0.00201574 -0.00708295
0.000430192 -0.00138811 -0.00230895 -0.00678898
0.000437251 -0.00211846 -0.00222968 -0.00630081
0.000444411 -0.00339773 -0.00200296 -0.00508983
0.000451674 -0.00425985 -0.00179239 -0.00451779
0.000459041 -0.00478886 -0.00156302 -0.00379063
0.000466513 -0.00477232 -0.00125387 -0.00295178
0.000474092 -0.00460449 -0.000955377 -0.00234232
0.00048178 -0.00438767 -0.000710828 -0.00182389
0.000489577 -0.0040345 -0.000577471 -0.00150368
0.000497485 -0.00354593 -0.000392075 -0.000912746
0.000505506 -0.00286076 -0.000185121 -0.000359521
0.000513641 -0.00224582 4.48975e-05 9.61168e-06
0.000521892 -0.00168074 -4.60572e-06 0.000188003
0.00053026 -0.00116875 -5.68578e-05 0.000402173
0.000538747 -0.000720405 -7.94561e-05 0.000550082
0.000547355 -0.000468546 -0.000206121 0.000646937
0.000556084 -0.000212916 -0.00029258 0.00064584
0.000564937 -0.000118003 -0.000306714 0.000618349
0.000573915 -8.36526e-05 -0.000336692 0.000627643
0.00058302 -4.73165e-05 -0.000339225 0.000625733
0.000592254 -4.27718e-06 -0.000322884 0.000586901
0.000601618 3.26823e-05 -0.000291575 0.000513638
0.000611114 5.63659e-05 -0.000267519 0.000456434
0.000620743 9.85654e-05 -0.000236054 0.000421451
0.000630508 0.000120918 -0.000207915 0.000383326
0.00064041 0.000120515 -0.000161497 0.00031976
0.000650451 0.000109331 -0.000139872 0.000271486
0.000660633 9.69694e-05 -0.000119437 0.000233865
0.000670957 8.97088e-05 -0.000106671 0.000206344
0.000681426 9.02097e-05 -7.9691e-05 0.000182139
0.000692041 7.65911e-05 -6.05467e-05 0.00015795
0.000702804 6.69951e-05 -5.35219e-05 0.000134927
0.000713717 5.62207e-05 -4.21837e-05 0.000113161
0.000724783 4.07702e-05 -3.52848e-05 9.91536e-05
0.000736002 3.26314e-05 -3.19139e-05 8.40761e-05
0.000747376 2.23876e-05 -3.03187e-05 7.00542e-05
0.000758909 1.31847e-05 -2.663e-05 5.74134e-05
0.000770601 9.0949e-06 -2.14683e-05 4.46268e-05
0.000782455 9.28894e-06 -1.56521e-05 3.66388e-05
0.000794473 6.74607e-06 -1.2719e-05 2.95805e-05
0.000806657 5.52713e-06 -9.81958e-06 2.28172e-05
0.000819009 3.95562e-06 -7.8381e-06 1.76061e-05
0.00083153 2.57691e-06 -5.5688e-06 1.27408e-05
0.000844224 1.65371e-06 -4.74894e-06 8.10324e-06
0.000857092 5.33126e-07 -2.56906e-06 4.69712e-06
0.000870136 7.38555e-07 -1.10648e-06 3.08791e-06
0.000883359 6.88862e-07 -4.99205e-08 1.86989e-06
0.000896763 6.965e-07 1.11095e-07 1.57444e-06
0.000910349 1.11899e-06 5.71627e-07 1.23901e-06
0.000924121 9.79744e-07 5.92353e-07 6.34143e-07
0.00093808 8.2955e-07 5.3712e-07 3.49545e-07
0.000952229 6.04734e-07 4.80376e-07 1.50143e-07
0.000966569 5.50627e-07 1.995e-07 1.61299e-09
0.000981104 3.32932e-07 2.22969e-09 -1.36542e-07
0.000995835 2.54952e-07 -1.38699e-07 -2.64711e-07
0.00101076 1.68398e-07 -3.97296e-07 -3.40347e-07
0.0010259 8.46129e-08 -4.71598e-07 -3.33839e-07
0.00104123 3.21691e-08 -4.8413e-07 -3.49983e-07
0.00105677 3.82605e-08 -4.30506e-07 -2.82501e-07
0.00107252 7.90885e-08 -4.09379e-07 -2.17838e-07
0.00108848 6.50568e-08 -3.28177e-07 -1.48738e-07
0.00110465 6.30463e-08 -2.78801e-07 -1.04208e-07
0.00112104 5.14945e-08 -2.36812e-07 -6.88342e-08
0.00113765 5.03742e-08 -2.03196e-07 -4.57534e-08
0.00115447 3.91637e-08 -1.6422e-07 -2.96574e-08
0.00117152 3.41023e-08 -1.29975e-07 -1.41368e-08
0.0011888 2.92905e-08 -1.07309e-07 -6.2287e-09
0.0012063 2.44343e-08 -8.32327e-08 -1.06069e-09
0.00122404 1.62449e-08 -6.71863e-08 2.67659e-10
0.00124201 9.36538e-09 -4.9037e-08 8.14553e-10
0.00126021 4.36251e-09 -3.7285e-08 2.41083e-09
0.00127865 2.35582e-09 -2.62026e-08 2.18193e-09
0.00129733 5.79927e-10 -1.89212e-08 2.69229e-09
0.00131626 5.12667e-10 -1.17434e-08 2.26085e-09
0.00133543 -1.70217e-10 -6.98701e-09 2.15403e-09
0.00135485 -1.01389e-10 -4.96963e-09 1.64865e-09
0.00137453 -3.8548e-10 -3.26301e-09 1.24092e-09
0.00139446 -5.16402e-10 -1.95029e-09 9.02456e-10
0.00141464 -2.98823e-10 -1.51742e-09 7.07566e-10
0.00143508 -2.8518e-10 -9.88005e-10 5.18852e-10
0.00145579 -2.27068e-10 -6.32139e-10 2.66623e-10
0.00147676 -2.47337e-10 -5.07105e-10 2.72941e-10
0.001498 -0 -0 0
0.00151951 -0 -0 0
0.0015413 -0 -0 0
0.00156336 -0 -0 0
0.00158569 -0 -0 0
0.00160831 -0 -0 0
0.00163122 -0 -0 0
0.00165441 -0 -0 0
0.00167789 -0 -0 0
0.00170167 -0 -0 0
0.00172574 -0 -0 0
0.0017501 -0 0 0
0.00177477 -0 -0 0
0.00179975 -0 0 0
0.00182503 -0 -0 0
0.00185062 -0 -0 0
0.00187652 -0 -0 0
0.00190274 -0 -0 0
0.00192927 -0 0 0
0.00195613 -0 -0 0
0.00198331 -0 0 0
0.00201081 -0 -0 0
0.00203865 -0 -0 0
0.00206681 -0 -0 0
0.00209532 0 -0 0
0.00212415 0 -0 0
0.00215333 0 -0 0
0.00218286 0 -0 0
0.00221272 0 -0 0
0.00224294 0 -0 0
0.00227351 0 -0 0
0.00230443 0 -0 0
0.0023357 0 -0 0
0.00236734 0 -0 0
0.00239934 0 -0 0
0.0024317 0 -0 0
0.00246443 0 -0 -0
0.00249752 0 -0 0
0.00253099 0 -0 0
0.00256484 0 -0 0
0.00259906 0 -0 -0
0.00263366 0 -0 -0
0.00266864 0 -0 -0
0.002704 0 -0 -0
0.00273975 0 -0 -0
0.00277589 0 -0 -0
0.00281242 0 -0 -0
0.00284935 -0 -0 -0
0.00288666 -0 0 -0
0.00292438 -0 0 -0
0.0029625 -0 0 -0
0.00300101 -0 0 -0
0.00303993 -0 0 -0
0.00307926 -0 0 -0
0.00311899 -0 0 -0
0.00315913 -0 0 -0
0.00319969 -0 0 -0
0.00324065 -0 0 -0
0.00328203 -0 0 -0
0.00332383 -0 0 -0
0.00336604 -0 0 -0
0.00340868 -0 0 -0
0.00345173 -0 0 -0
0.0034952 -0 -0 -0
0.0035391 -0 -0 -0
0.00358342 -0 -0 -0
0.00362817 0 -0 -0
0.00367335 0 -0 -0
0.00371895 0 -0 -0
0.00376498 0 -0 -0
0.00381144 0 -0 -0
0.00385833 0 -0 -0
0.00390565 0 -0 -0
0.0039534 0 -0 -0
0.00400158 0 -0 0
0.0040502 0 -0 0
0.00409925 0 -0 0
0.00414873 0 -0 0
0.00419864 0 -0 0
0.00424899 0 -0 0
0.00429977 -0 -0 0
0.00435098 -0 -0 0
0.00440262 -0 -0 0
0.0044547 -0 -0 0
0.00450721 -0 -0 0
0.00456015 -0 -0 0
0.00461352 -0 -0 0
0.00466732 -0 -0 0
0.00472155 -0 -0 0
0.00477621 -0 -0 -0
0.00483129 -0 -0 -0
0.0048868 -0 -0 -0
0.00494274 -0 -0 -0
0.00499909 -0 -0 -0
0.00505587 -0 -0 -0
0.00511307 -0 -0 -0
0.00517068 -0 -0 -0
0.00522871 -0 -0 -0
0.00528716 -0 -0 -0
0.00534601 -0 -0 -0
0.00540528 -0 -0 -0
0.00546495 -0 -0 -0
0.00552503 -0 -0 -0
0.0055855 -0 -0 -0
0.00564638 -0 -0 -0
0.00570765 -0 -0 -0
0.00576932 -0 -0 0
0.00583137 -0 -0 0
0.00589381 -0 -0 0
0.00595664 -0 0 -0
0.00601984 -0 0 0
0.00608342 -0 0 0
0.00614737 -0 0 0
0.00621169 -0 0 0
0.00627637 -0 0 0
0.00634141 -0 0 0
0.00640681 -0 0 0
0.00647256 -0 0 0
0.00653865 -0 0 0
0.00660509 -0 0 0
0.00667186 -0 0 0
0.00673896 -0 0 0
0.0068064 -0 0 0
0.00687415 -0 -0 0
0.00694222 -0 -0 0
0.00701059 -0 -0 0
0.00707928 -0 -0 0
0.00714826 -0 -0 0
0.00721754 0 -0 0
0.0072871 0 0 0
0.00735695 0 0 0
0.00742707 0 0 0
0.00749746 0 0 0
0.00756811 0 -0 0
0.00763902 0 -0 0
0.00771018 0 -0 0
0.00778158 0 -0 0
0.00785322 0 -0 0
0.00792509 0 -0 0
0.00799718 -0 -0 0
0.00806948 -0 -0 -0
0.008142 -0 -0 0
0.00821471 -0 -0 0
0.00828762 -0 -0 0
0.00836071 -0 0 0
0.00843398 -0 0 -0
0.00850743 -0 0 -0
0.00858103 -0 0 0
0.0086548 -0 0 0
0.00872871 -0 0 0
0.00880276 -0 0 0
0.00887694 -0 -0 0
0.00895125 0 -0 0
0.00902567 0 -0 0
0.0091002 0 -0 0
0.00917483 0 -0 0
0.00924955 0 -0 0
0.00932436 0 -0 -0
0.00939924 0 -0 0
0.00947419 0 0 0
0.00954919 0 0 -0
0.00962425 0 0 0
0.00969935 0 0 0
0.00977448 0 0 0
0.00984964 0 0 0
0.00992482 0 -0 0
